
     Program PWSCF v.7.4.1 starts on 27Aug2025 at 21:19:18 

     This program is part of the open-source Quantum ESPRESSO suite
     for quantum simulation of materials; please cite
         "P. Giannozzi et al., J. Phys.:Condens. Matter 21 395502 (2009);
         "P. Giannozzi et al., J. Phys.:Condens. Matter 29 465901 (2017);
         "P. Giannozzi et al., J. Chem. Phys. 152 154105 (2020);
          URL http://www.quantum-espresso.org", 
     in publications or presentations arising from this work. More details at
     http://www.quantum-espresso.org/quote

     Parallel version (MPI), running on    12 processors

     MPI processes distributed on     1 nodes
     30659 MiB available memory on the printing compute node when the environment starts

     Reading input from qe_calc.pwi
Warning: card &CELL ignored
Warning: card / ignored

     Current dimensions of program PWSCF are:
     Max number of different atomic species (ntypx) = 10
     Max number of k-points (npk) =  40000
     Max angular momentum in pseudopotentials (lmaxx) =  4
     file O.pbe-rrkjus.UPF: wavefunction(s)  2S renormalized
     file Co.pbe-nd-rrkjus.UPF: wavefunction(s)  4S 3D renormalized
     file C.pbe-rrkjus.UPF: wavefunction(s)  2S 2P renormalized
     file H.pbe-rrkjus.UPF: wavefunction(s)  1S renormalized

     R & G space division:  proc/nbgrp/npool/nimage =      12
     Subspace diagonalization in iterative solution of the eigenvalue problem:
     one sub-group per band group will be used
     custom distributed-memory algorithm (size of sub-group:  3*  3 procs)


     Parallelization info
     --------------------
     sticks:   dense  smooth     PW     G-vecs:    dense   smooth      PW
     Min         619     275     73                78443    23237    3191
     Max         620     276     74                78448    23246    3196
     Sum        7435    3301    881               941351   278855   38309

     Using Slab Decomposition



     bravais-lattice index     =            0
     lattice parameter (alat)  =      20.2462  a.u.
     unit-cell volume          =   16519.3246 (a.u.)^3
     number of atoms/cell      =           85
     number of atomic types    =            5
     number of electrons       =       616.00
     number of Kohn-Sham states=          742
     kinetic-energy cutoff     =      25.0000  Ry
     charge density cutoff     =     225.0000  Ry
     scf convergence threshold =      1.0E-04
     mixing beta               =       0.1000
     number of iterations used =            8  plain     mixing
     Exchange-correlation=  SLA  PW   PBE  PBE
                           (   1   4   3   4   0   0   0)

     celldm(1)=  20.246200  celldm(2)=   0.000000  celldm(3)=   0.000000
     celldm(4)=   0.000000  celldm(5)=   0.000000  celldm(6)=   0.000000

     crystal axes: (cart. coord. in units of alat)
               a(1) = (   1.000000   0.000000   0.000000 )  
               a(2) = (   0.000000   1.014314   0.000000 )  
               a(3) = (   0.000000   0.000000   1.962408 )  

     reciprocal axes: (cart. coord. in units 2 pi/alat)
               b(1) = (  1.000000  0.000000  0.000000 )  
               b(2) = (  0.000000  0.985888  0.000000 )  
               b(3) = (  0.000000  0.000000  0.509578 )  


     PseudoPot. # 1 for O  read from file:
     /home/minjae/qe-7.4.1/pseudo/O.pbe-rrkjus.UPF
     MD5 check sum: 390ba29e75625707450f3bd3f0eb6be9
     Pseudo is Ultrasoft, Zval =  6.0
     Generated by new atomic code, or converted to UPF format
     Using radial grid of 1269 points,  4 beta functions with: 
                l(1) =   0
                l(2) =   0
                l(3) =   1
                l(4) =   1
     Q(r) pseudized with 0 coefficients 


     PseudoPot. # 2 for Co read from file:
     /home/minjae/qe-7.4.1/pseudo/Co.pbe-nd-rrkjus.UPF
     MD5 check sum: 3e47a84addf5e975e0edeaeee2a73f59
     Pseudo is Ultrasoft + core correction, Zval =  9.0
     Generated by new atomic code, or converted to UPF format
     Using radial grid of  961 points,  6 beta functions with: 
                l(1) =   0
                l(2) =   0
                l(3) =   1
                l(4) =   1
                l(5) =   2
                l(6) =   2
     Q(r) pseudized with 0 coefficients 


     PseudoPot. # 3 for La read from file:
     /home/minjae/qe-7.4.1/pseudo/La.pbe-nsp-van.UPF
     MD5 check sum: b2f11743f52dde65f77d1302becd7929
     Pseudo is Ultrasoft + core correction, Zval = 11.0
     Generated by new atomic code, or converted to UPF format
     Using radial grid of  907 points,  6 beta functions with: 
                l(1) =   0
                l(2) =   0
                l(3) =   1
                l(4) =   1
                l(5) =   2
                l(6) =   2
     Q(r) pseudized with  6 coefficients,  rinner =    1.200   1.200   1.200
                                                       1.200   1.200

     PseudoPot. # 4 for C  read from file:
     /home/minjae/qe-7.4.1/pseudo/C.pbe-rrkjus.UPF
     MD5 check sum: 00fb224312de0c5b6853bd333518df6f
     Pseudo is Ultrasoft, Zval =  4.0
     Generated by new atomic code, or converted to UPF format
     Using radial grid of  627 points,  4 beta functions with: 
                l(1) =   0
                l(2) =   0
                l(3) =   1
                l(4) =   1
     Q(r) pseudized with 0 coefficients 


     PseudoPot. # 5 for H  read from file:
     /home/minjae/qe-7.4.1/pseudo/H.pbe-rrkjus.UPF
     MD5 check sum: 7cc9d459525c9a0585f487a71c3c9563
     Pseudo is Ultrasoft, Zval =  1.0
     Generated by new atomic code, or converted to UPF format
     Using radial grid of 1061 points,  2 beta functions with: 
                l(1) =   0
                l(2) =   0
     Q(r) pseudized with 0 coefficients 


     atomic species   valence    mass     pseudopotential
     O                 6.00    15.99900     O ( 1.00)
     Co                9.00    58.93319     Co( 1.00)
     La               11.00   138.90547     La( 1.00)
     C                 4.00    12.01100     C ( 1.00)
     H                 1.00     1.00800     H ( 1.00)

     No symmetry found



   Cartesian axes

     site n.     atom                  positions (alat units)
         1        O      tau(   1) = (   0.2203493   0.3774767   1.2435738  )
         2        O      tau(   2) = (   0.9702260   0.3836660   1.2434970  )
         3        Co     tau(   3) = (   0.8465346   0.2566944   1.2388875  )
         4        Co     tau(   4) = (   0.0962033   0.5039493   1.2394229  )
         5        O      tau(   5) = (   0.2221379   0.1259550   1.2200557  )
         6        O      tau(   6) = (   0.9723614   0.1279874   1.2202996  )
         7        La     tau(   7) = (   0.0952135   0.2546082   1.0773985  )
         8        O      tau(   8) = (   0.8563727   0.2846124   1.0536834  )
         9        O      tau(   9) = (   0.1061648   0.4766962   1.0538496  )
        10        La     tau(  10) = (   0.8447047   0.5068901   1.0780865  )
        11        O      tau(  11) = (   0.9621609   0.1125340   0.9022060  )
        12        O      tau(  12) = (   0.7121609   0.1410446   0.9022060  )
        13        Co     tau(  13) = (   0.6016203   0.0000000   0.8821919  )
        14        Co     tau(  14) = (   0.8516202   0.2535786   0.8821919  )
        15        O      tau(  15) = (   0.9910796   0.3661126   0.8621777  )
        16        O      tau(  16) = (   0.7410796   0.3946232   0.8621777  )
        17        O      tau(  17) = (   0.6052244   0.0285105   0.7041819  )
        18        O      tau(  18) = (   0.8552244   0.2250680   0.7041819  )
        19        La     tau(  19) = (   0.6052244   0.2535786   0.7041819  )
        20        La     tau(  20) = (   0.8552244   0.5071572   0.7041819  )
        21        O      tau(  21) = (   0.2204051   0.8850501   1.2436468  )
        22        O      tau(  22) = (   0.9704557   0.8906735   1.2431427  )
        23        Co     tau(  23) = (   0.8461395   0.7642938   1.2391538  )
        24        Co     tau(  24) = (   0.0962116   1.0111645   1.2383917  )
        25        O      tau(  25) = (   0.2220679   0.6331252   1.2211109  )
        26        O      tau(  26) = (   0.9721411   0.6352304   1.2206328  )
        27        La     tau(  27) = (   0.0953071   0.7611220   1.0779607  )
        28        O      tau(  28) = (   0.8559094   0.7915184   1.0536793  )
        29        O      tau(  29) = (   0.1058719   0.9832115   1.0535265  )
        30        La     tau(  30) = (   0.8451634   1.0136873   1.0774044  )
        31        O      tau(  31) = (   0.9621609   0.6196912   0.9022060  )
        32        O      tau(  32) = (   0.7121609   0.6482018   0.9022060  )
        33        Co     tau(  33) = (   0.6016203   0.5071572   0.8821919  )
        34        Co     tau(  34) = (   0.8516202   0.7607358   0.8821919  )
        35        O      tau(  35) = (   0.9910796   0.8732698   0.8621777  )
        36        O      tau(  36) = (   0.7410796   0.9017803   0.8621777  )
        37        O      tau(  37) = (   0.6052244   0.5356678   0.7041819  )
        38        O      tau(  38) = (   0.8552244   0.7322252   0.7041819  )
        39        La     tau(  39) = (   0.6052244   0.7607358   0.7041819  )
        40        La     tau(  40) = (   0.8552244   0.0000000   0.7041819  )
        41        O      tau(  41) = (   0.7205927   0.3769491   1.2424969  )
        42        O      tau(  42) = (   0.4700377   0.3829124   1.2425505  )
        43        Co     tau(  43) = (   0.3459870   0.2567933   1.2393270  )
        44        Co     tau(  44) = (   0.5960687   0.5042195   1.2415329  )
        45        O      tau(  45) = (   0.7222591   0.1256529   1.2201024  )
        46        O      tau(  46) = (   0.4721046   0.1277372   1.2201189  )
        47        La     tau(  47) = (   0.5950969   0.2552138   1.0782572  )
        48        O      tau(  48) = (   0.3557909   0.2845704   1.0537050  )
        49        O      tau(  49) = (   0.6053580   0.4778301   1.0544428  )
        50        La     tau(  50) = (   0.3456705   0.5068301   1.0782434  )
        51        O      tau(  51) = (   0.4621609   0.1125340   0.9022060  )
        52        O      tau(  52) = (   0.2121609   0.1410446   0.9022060  )
        53        Co     tau(  53) = (   0.1016203   0.0000000   0.8821919  )
        54        Co     tau(  54) = (   0.3516203   0.2535786   0.8821919  )
        55        O      tau(  55) = (   0.4910796   0.3661126   0.8621777  )
        56        O      tau(  56) = (   0.2410796   0.3946232   0.8621777  )
        57        O      tau(  57) = (   0.1052245   0.0285105   0.7041819  )
        58        O      tau(  58) = (   0.3552245   0.2250680   0.7041819  )
        59        La     tau(  59) = (   0.1052245   0.2535786   0.7041819  )
        60        La     tau(  60) = (   0.3552245   0.5071572   0.7041819  )
        61        O      tau(  61) = (   0.7205016   0.8845354   1.2436686  )
        62        O      tau(  62) = (   0.4704604   0.8904349   1.2436117  )
        63        Co     tau(  63) = (   0.3460564   0.7645262   1.2397113  )
        64        Co     tau(  64) = (   0.5962879   1.0108189   1.2384755  )
        65        O      tau(  65) = (   0.7223897   0.6333848   1.2201482  )
        66        O      tau(  66) = (   0.4715423   0.6354383   1.2209016  )
        67        La     tau(  67) = (   0.5950056   0.7604696   1.0778106  )
        68        O      tau(  68) = (   0.3556102   0.7914908   1.0538793  )
        69        O      tau(  69) = (   0.6060324   0.9828265   1.0535795  )
        70        La     tau(  70) = (   0.3452891   1.0137371   1.0774318  )
        71        O      tau(  71) = (   0.4621609   0.6196912   0.9022060  )
        72        O      tau(  72) = (   0.2121609   0.6482018   0.9022060  )
        73        Co     tau(  73) = (   0.1016203   0.5071572   0.8821919  )
        74        Co     tau(  74) = (   0.3516203   0.7607358   0.8821919  )
        75        O      tau(  75) = (   0.4910796   0.8732698   0.8621777  )
        76        O      tau(  76) = (   0.2410796   0.9017803   0.8621777  )
        77        O      tau(  77) = (   0.1052245   0.5356678   0.7041819  )
        78        O      tau(  78) = (   0.3552245   0.7322252   0.7041819  )
        79        La     tau(  79) = (   0.1052245   0.7607358   0.7041819  )
        80        La     tau(  80) = (   0.3552245   0.0000000   0.7041819  )
        81        C      tau(  81) = (   0.5905922   0.5282614   1.4980081  )
        82        H      tau(  82) = (   0.5361852   0.4008503   1.5142005  )
        83        H      tau(  83) = (   0.6549981   0.4684664   1.4694459  )
        84        H      tau(  84) = (   0.5242255   0.5602213   1.4551058  )
        85        H      tau(  85) = (   0.6346100   0.6002383   1.5441417  )

     number of k points=     2  Gaussian smearing, width (Ry)=  0.0100
                       cart. coord. in units 2pi/alat
        k(    1) = (   0.0000000   0.0000000   0.0000000), wk =   1.0000000
        k(    2) = (  -0.5000000   0.0000000   0.0000000), wk =   1.0000000

     Dense  grid:   941351 G-vectors     FFT dimensions: ( 100, 100, 192)

     Smooth grid:   278855 G-vectors     FFT dimensions: (  72,  72, 128)

     Estimated max dynamical RAM per process >     594.11 MB

     Estimated total dynamical RAM >       6.96 GB

     Check: negative core charge=   -0.000034

     Initial potential from superposition of free atoms

     starting charge     615.0937, renormalised to     616.0000

     negative rho (up, down):  1.229E-02 0.000E+00
     Starting wfcs are  504 randomized atomic wfcs +  238 random wfcs

     total cpu time spent up to now is      302.0 secs

     Self-consistent Calculation

     iteration #  1     ecut=    25.00 Ry     beta= 0.10
     Davidson diagonalization with overlap
     ethr =  1.00E-02,  avg # of iterations =  6.0

     negative rho (up, down):  1.200E-02 0.000E+00

     total cpu time spent up to now is     4599.2 secs

     total energy              =   -4313.53233394 Ry
     estimated scf accuracy    <     128.33388148 Ry

     iteration #  2     ecut=    25.00 Ry     beta= 0.10
     Davidson diagonalization with overlap
     ethr =  1.00E-02,  avg # of iterations =  2.0

     negative rho (up, down):  2.338E-02 0.000E+00

     total cpu time spent up to now is     6290.9 secs

     total energy              =   -4318.68291139 Ry
     estimated scf accuracy    <     114.99734208 Ry

     iteration #  3     ecut=    25.00 Ry     beta= 0.10
     Davidson diagonalization with overlap
     ethr =  1.00E-02,  avg # of iterations =  1.0

     negative rho (up, down):  3.163E-02 0.000E+00

     total cpu time spent up to now is     7595.0 secs

     total energy              =   -4317.88129017 Ry
     estimated scf accuracy    <     113.66422624 Ry

     iteration #  4     ecut=    25.00 Ry     beta= 0.10
     Davidson diagonalization with overlap
     ethr =  1.00E-02,  avg # of iterations =  1.0

     negative rho (up, down):  3.116E-02 0.000E+00

     total cpu time spent up to now is     8923.7 secs

     total energy              =   -4318.17673633 Ry
     estimated scf accuracy    <     121.61414920 Ry

     iteration #  5     ecut=    25.00 Ry     beta= 0.10
     Davidson diagonalization with overlap
     ethr =  1.00E-02,  avg # of iterations =  1.0

     negative rho (up, down):  4.357E-02 0.000E+00

     total cpu time spent up to now is    10266.8 secs

     total energy              =   -4319.50924455 Ry
     estimated scf accuracy    <      68.23234054 Ry

     iteration #  6     ecut=    25.00 Ry     beta= 0.10
     Davidson diagonalization with overlap
     ethr =  1.00E-02,  avg # of iterations =  1.0

     negative rho (up, down):  4.846E-02 0.000E+00

     total cpu time spent up to now is    11601.7 secs

     total energy              =   -4319.34561912 Ry
     estimated scf accuracy    <      39.76206695 Ry

     iteration #  7     ecut=    25.00 Ry     beta= 0.10
     Davidson diagonalization with overlap
     ethr =  6.45E-03,  avg # of iterations =  1.0

     negative rho (up, down):  5.952E-02 0.000E+00

     total cpu time spent up to now is    12912.1 secs

     total energy              =   -4320.08138310 Ry
     estimated scf accuracy    <      26.06885759 Ry

     iteration #  8     ecut=    25.00 Ry     beta= 0.10
     Davidson diagonalization with overlap
     ethr =  4.23E-03,  avg # of iterations =  1.0

     negative rho (up, down):  6.609E-02 0.000E+00

     total cpu time spent up to now is    14245.0 secs

     total energy              =   -4320.25593139 Ry
     estimated scf accuracy    <      11.89919332 Ry

     iteration #  9     ecut=    25.00 Ry     beta= 0.10
     Davidson diagonalization with overlap
     ethr =  1.93E-03,  avg # of iterations =  1.5

     negative rho (up, down):  8.348E-02 0.000E+00

     total cpu time spent up to now is    15750.5 secs

     total energy              =   -4320.23786751 Ry
     estimated scf accuracy    <      10.62423672 Ry

     iteration # 10     ecut=    25.00 Ry     beta= 0.10
     Davidson diagonalization with overlap
     ethr =  1.72E-03,  avg # of iterations =  1.5

     negative rho (up, down):  7.764E-02 0.000E+00

     total cpu time spent up to now is    17258.1 secs

     total energy              =   -4320.22686284 Ry
     estimated scf accuracy    <       3.33530033 Ry

     iteration # 11     ecut=    25.00 Ry     beta= 0.10
     Davidson diagonalization with overlap
     ethr =  5.41E-04,  avg # of iterations =  5.5

     negative rho (up, down):  8.136E-02 0.000E+00

     total cpu time spent up to now is    20137.9 secs

     total energy              =   -4320.11609367 Ry
     estimated scf accuracy    <       7.23264650 Ry

     iteration # 12     ecut=    25.00 Ry     beta= 0.10
     Davidson diagonalization with overlap
     ethr =  5.41E-04,  avg # of iterations =  2.0

     negative rho (up, down):  7.035E-02 0.000E+00

     total cpu time spent up to now is    21845.6 secs

     total energy              =   -4320.14252978 Ry
     estimated scf accuracy    <       2.16870659 Ry

     iteration # 13     ecut=    25.00 Ry     beta= 0.10
     Davidson diagonalization with overlap
     ethr =  3.52E-04,  avg # of iterations =  2.0

     negative rho (up, down):  6.614E-02 0.000E+00

     total cpu time spent up to now is    23546.7 secs

     total energy              =   -4320.08275593 Ry
     estimated scf accuracy    <       5.80329461 Ry

     iteration # 14     ecut=    25.00 Ry     beta= 0.10
     Davidson diagonalization with overlap
     ethr =  3.52E-04,  avg # of iterations =  2.0

     negative rho (up, down):  6.492E-02 0.000E+00

     total cpu time spent up to now is    25197.1 secs

     total energy              =   -4320.10887034 Ry
     estimated scf accuracy    <       1.17036375 Ry

     iteration # 15     ecut=    25.00 Ry     beta= 0.10
     Davidson diagonalization with overlap
     ethr =  1.90E-04,  avg # of iterations =  8.0

     negative rho (up, down):  5.467E-02 0.000E+00

     total cpu time spent up to now is    28988.4 secs

     total energy              =   -4320.07039419 Ry
     estimated scf accuracy    <       3.05465735 Ry

     iteration # 16     ecut=    25.00 Ry     beta= 0.10
     Davidson diagonalization with overlap
     ethr =  1.90E-04,  avg # of iterations =  2.5

     negative rho (up, down):  6.768E-02 0.000E+00

     total cpu time spent up to now is    30850.1 secs

     total energy              =   -4320.06862888 Ry
     estimated scf accuracy    <       1.39160884 Ry

     iteration # 17     ecut=    25.00 Ry     beta= 0.10
     Davidson diagonalization with overlap
     ethr =  1.90E-04,  avg # of iterations =  1.5

     negative rho (up, down):  1.636E-02 0.000E+00

     total cpu time spent up to now is    32361.4 secs

     total energy              =   -4320.03481067 Ry
     estimated scf accuracy    <       3.75128956 Ry

     iteration # 18     ecut=    25.00 Ry     beta= 0.10
     Davidson diagonalization with overlap
     ethr =  1.90E-04,  avg # of iterations =  2.5

     negative rho (up, down):  1.502E-02 0.000E+00

     total cpu time spent up to now is    34212.4 secs

     total energy              =   -4320.06773573 Ry
     estimated scf accuracy    <       0.71494058 Ry

     iteration # 19     ecut=    25.00 Ry     beta= 0.10
     Davidson diagonalization with overlap
     ethr =  1.16E-04,  avg # of iterations =  5.5

     negative rho (up, down):  1.489E-02 0.000E+00

     total cpu time spent up to now is    37047.5 secs

     total energy              =   -4320.06792618 Ry
     estimated scf accuracy    <       0.67618934 Ry

     iteration # 20     ecut=    25.00 Ry     beta= 0.10
     Davidson diagonalization with overlap
     ethr =  1.10E-04,  avg # of iterations =  2.0

     negative rho (up, down):  1.431E-02 0.000E+00

     total cpu time spent up to now is    38759.1 secs

     total energy              =   -4320.06605781 Ry
     estimated scf accuracy    <       0.59224985 Ry

     iteration # 21     ecut=    25.00 Ry     beta= 0.10
     Davidson diagonalization with overlap
     ethr =  9.61E-05,  avg # of iterations =  5.5

     negative rho (up, down):  1.691E-02 0.000E+00

     total cpu time spent up to now is    41615.1 secs

     total energy              =   -4320.05982641 Ry
     estimated scf accuracy    <       1.24187057 Ry

     iteration # 22     ecut=    25.00 Ry     beta= 0.10
     Davidson diagonalization with overlap
     ethr =  9.61E-05,  avg # of iterations =  2.0

     negative rho (up, down):  1.715E-02 0.000E+00

     total cpu time spent up to now is    43329.4 secs

     total energy              =   -4320.07405034 Ry
     estimated scf accuracy    <       0.19415117 Ry

     iteration # 23     ecut=    25.00 Ry     beta= 0.10
     Davidson diagonalization with overlap
     c_bands:  1 eigenvalues not converged
     ethr =  3.15E-05,  avg # of iterations = 16.5

     negative rho (up, down):  1.411E-02 0.000E+00

     total cpu time spent up to now is    50444.2 secs

     total energy              =   -4320.07163803 Ry
     estimated scf accuracy    <       0.32615930 Ry

     iteration # 24     ecut=    25.00 Ry     beta= 0.10
     Davidson diagonalization with overlap
     ethr =  3.15E-05,  avg # of iterations =  1.0

     negative rho (up, down):  1.450E-02 0.000E+00

     total cpu time spent up to now is    51808.6 secs

     total energy              =   -4320.07116014 Ry
     estimated scf accuracy    <       0.41046696 Ry

     iteration # 25     ecut=    25.00 Ry     beta= 0.10
     Davidson diagonalization with overlap
     ethr =  3.15E-05,  avg # of iterations =  1.0

     negative rho (up, down):  1.498E-02 0.000E+00

     total cpu time spent up to now is    53166.6 secs

     total energy              =   -4320.07178463 Ry
     estimated scf accuracy    <       0.36716772 Ry

     iteration # 26     ecut=    25.00 Ry     beta= 0.10
     Davidson diagonalization with overlap
     ethr =  3.15E-05,  avg # of iterations =  1.0

     negative rho (up, down):  1.666E-02 0.000E+00

     total cpu time spent up to now is    54520.4 secs

     total energy              =   -4320.07323500 Ry
     estimated scf accuracy    <       0.21435324 Ry

     iteration # 27     ecut=    25.00 Ry     beta= 0.10
     Davidson diagonalization with overlap
     ethr =  3.15E-05,  avg # of iterations =  1.0

     negative rho (up, down):  1.450E-02 0.000E+00

     total cpu time spent up to now is    55843.4 secs

     total energy              =   -4320.07276163 Ry
     estimated scf accuracy    <       0.20536266 Ry

     iteration # 28     ecut=    25.00 Ry     beta= 0.10
     Davidson diagonalization with overlap
     ethr =  3.15E-05,  avg # of iterations =  1.0

     negative rho (up, down):  1.426E-02 0.000E+00

     total cpu time spent up to now is    57193.0 secs

     total energy              =   -4320.07335152 Ry
     estimated scf accuracy    <       0.22348640 Ry

     iteration # 29     ecut=    25.00 Ry     beta= 0.10
     Davidson diagonalization with overlap
     ethr =  3.15E-05,  avg # of iterations =  1.0

     negative rho (up, down):  1.464E-02 0.000E+00

     total cpu time spent up to now is    58535.6 secs

     total energy              =   -4320.07422266 Ry
     estimated scf accuracy    <       0.10684048 Ry

     iteration # 30     ecut=    25.00 Ry     beta= 0.10
     Davidson diagonalization with overlap
     ethr =  1.73E-05,  avg # of iterations =  1.0

     negative rho (up, down):  1.435E-02 0.000E+00

     total cpu time spent up to now is    59930.2 secs

     total energy              =   -4320.07438876 Ry
     estimated scf accuracy    <       0.10595330 Ry

     iteration # 31     ecut=    25.00 Ry     beta= 0.10
     Davidson diagonalization with overlap
     ethr =  1.72E-05,  avg # of iterations =  1.0

     negative rho (up, down):  1.526E-02 0.000E+00

     total cpu time spent up to now is    61316.1 secs

     total energy              =   -4320.07427538 Ry
     estimated scf accuracy    <       0.08978764 Ry

     iteration # 32     ecut=    25.00 Ry     beta= 0.10
     Davidson diagonalization with overlap
     ethr =  1.46E-05,  avg # of iterations =  1.0

     negative rho (up, down):  1.575E-02 0.000E+00

     total cpu time spent up to now is    62656.3 secs

     total energy              =   -4320.07498153 Ry
     estimated scf accuracy    <       0.05369153 Ry

     iteration # 33     ecut=    25.00 Ry     beta= 0.10
     Davidson diagonalization with overlap
     ethr =  8.72E-06,  avg # of iterations =  1.0

     negative rho (up, down):  1.585E-02 0.000E+00

     total cpu time spent up to now is    64048.3 secs

     total energy              =   -4320.07512124 Ry
     estimated scf accuracy    <       0.04143718 Ry

     iteration # 34     ecut=    25.00 Ry     beta= 0.10
     Davidson diagonalization with overlap
     ethr =  6.73E-06,  avg # of iterations =  1.0

     negative rho (up, down):  1.607E-02 0.000E+00

     total cpu time spent up to now is    65435.1 secs

     total energy              =   -4320.07494173 Ry
     estimated scf accuracy    <       0.05810738 Ry

     iteration # 35     ecut=    25.00 Ry     beta= 0.10
     Davidson diagonalization with overlap
     ethr =  6.73E-06,  avg # of iterations =  1.0

     negative rho (up, down):  1.659E-02 0.000E+00

     total cpu time spent up to now is    66804.4 secs

     total energy              =   -4320.07510544 Ry
     estimated scf accuracy    <       0.03109999 Ry

     iteration # 36     ecut=    25.00 Ry     beta= 0.10
     Davidson diagonalization with overlap
     ethr =  5.05E-06,  avg # of iterations =  1.0

     negative rho (up, down):  1.622E-02 0.000E+00

     total cpu time spent up to now is    68185.5 secs

     total energy              =   -4320.07525875 Ry
     estimated scf accuracy    <       0.03189234 Ry

     iteration # 37     ecut=    25.00 Ry     beta= 0.10
     Davidson diagonalization with overlap
     ethr =  5.05E-06,  avg # of iterations =  1.0

     negative rho (up, down):  1.735E-02 0.000E+00

     total cpu time spent up to now is    69585.3 secs

     total energy              =   -4320.07503146 Ry
     estimated scf accuracy    <       0.02136296 Ry

     iteration # 38     ecut=    25.00 Ry     beta= 0.10
     Davidson diagonalization with overlap
     ethr =  3.47E-06,  avg # of iterations =  1.0

     negative rho (up, down):  1.714E-02 0.000E+00

     total cpu time spent up to now is    70990.3 secs

     total energy              =   -4320.07495148 Ry
     estimated scf accuracy    <       0.04864144 Ry

     iteration # 39     ecut=    25.00 Ry     beta= 0.10
     Davidson diagonalization with overlap
     ethr =  3.47E-06,  avg # of iterations =  1.0

     negative rho (up, down):  1.725E-02 0.000E+00

     total cpu time spent up to now is    72340.9 secs

     total energy              =   -4320.07512871 Ry
     estimated scf accuracy    <       0.02485410 Ry

     iteration # 40     ecut=    25.00 Ry     beta= 0.10
     Davidson diagonalization with overlap
     ethr =  3.47E-06,  avg # of iterations =  1.0

     negative rho (up, down):  1.665E-02 0.000E+00

     total cpu time spent up to now is    73680.0 secs

     total energy              =   -4320.07529144 Ry
     estimated scf accuracy    <       0.02435962 Ry

     iteration # 41     ecut=    25.00 Ry     beta= 0.10
     Davidson diagonalization with overlap
     ethr =  3.47E-06,  avg # of iterations =  1.0

     negative rho (up, down):  1.738E-02 0.000E+00

     total cpu time spent up to now is    75014.3 secs

     total energy              =   -4320.07518340 Ry
     estimated scf accuracy    <       0.01641285 Ry

     iteration # 42     ecut=    25.00 Ry     beta= 0.10
     Davidson diagonalization with overlap
     ethr =  2.66E-06,  avg # of iterations =  1.0

     negative rho (up, down):  1.775E-02 0.000E+00

     total cpu time spent up to now is    76353.6 secs

     total energy              =   -4320.07508218 Ry
     estimated scf accuracy    <       0.02443166 Ry

     iteration # 43     ecut=    25.00 Ry     beta= 0.10
     Davidson diagonalization with overlap
     ethr =  2.66E-06,  avg # of iterations =  1.0

     negative rho (up, down):  1.757E-02 0.000E+00

     total cpu time spent up to now is    77666.0 secs

     total energy              =   -4320.07520973 Ry
     estimated scf accuracy    <       0.02532695 Ry

     iteration # 44     ecut=    25.00 Ry     beta= 0.10
     Davidson diagonalization with overlap
     ethr =  2.66E-06,  avg # of iterations =  1.0

     negative rho (up, down):  1.749E-02 0.000E+00

     total cpu time spent up to now is    78978.2 secs

     total energy              =   -4320.07530845 Ry
     estimated scf accuracy    <       0.02000433 Ry

     iteration # 45     ecut=    25.00 Ry     beta= 0.10
     Davidson diagonalization with overlap
     ethr =  2.66E-06,  avg # of iterations =  1.0

     negative rho (up, down):  1.774E-02 0.000E+00

     total cpu time spent up to now is    80318.4 secs

     total energy              =   -4320.07534767 Ry
     estimated scf accuracy    <       0.01068235 Ry

     iteration # 46     ecut=    25.00 Ry     beta= 0.10
     Davidson diagonalization with overlap
     ethr =  1.73E-06,  avg # of iterations =  1.0

     negative rho (up, down):  1.758E-02 0.000E+00

     total cpu time spent up to now is    81660.4 secs

     total energy              =   -4320.07542187 Ry
     estimated scf accuracy    <       0.01145599 Ry

     iteration # 47     ecut=    25.00 Ry     beta= 0.10
     Davidson diagonalization with overlap
     ethr =  1.73E-06,  avg # of iterations =  1.0

     negative rho (up, down):  1.768E-02 0.000E+00

     total cpu time spent up to now is    83027.3 secs

     total energy              =   -4320.07544458 Ry
     estimated scf accuracy    <       0.00627844 Ry

     iteration # 48     ecut=    25.00 Ry     beta= 0.10
     Davidson diagonalization with overlap
     ethr =  1.02E-06,  avg # of iterations =  1.0

     negative rho (up, down):  1.773E-02 0.000E+00

     total cpu time spent up to now is    84393.1 secs

     total energy              =   -4320.07539502 Ry
     estimated scf accuracy    <       0.01329626 Ry

     iteration # 49     ecut=    25.00 Ry     beta= 0.10
     Davidson diagonalization with overlap
     ethr =  1.02E-06,  avg # of iterations =  1.0

     negative rho (up, down):  1.773E-02 0.000E+00

     total cpu time spent up to now is    85756.7 secs

     total energy              =   -4320.07548911 Ry
     estimated scf accuracy    <       0.00559770 Ry

     iteration # 50     ecut=    25.00 Ry     beta= 0.10
     Davidson diagonalization with overlap
     ethr =  9.09E-07,  avg # of iterations =  1.0

     negative rho (up, down):  1.749E-02 0.000E+00

     total cpu time spent up to now is    87071.2 secs

     total energy              =   -4320.07555741 Ry
     estimated scf accuracy    <       0.00588198 Ry

     iteration # 51     ecut=    25.00 Ry     beta= 0.10
     Davidson diagonalization with overlap
     ethr =  9.09E-07,  avg # of iterations =  1.0

     negative rho (up, down):  1.741E-02 0.000E+00

     total cpu time spent up to now is    88429.5 secs

     total energy              =   -4320.07558480 Ry
     estimated scf accuracy    <       0.00377316 Ry

     iteration # 52     ecut=    25.00 Ry     beta= 0.10
     Davidson diagonalization with overlap
     ethr =  6.13E-07,  avg # of iterations =  1.0

     negative rho (up, down):  1.751E-02 0.000E+00

     total cpu time spent up to now is    89774.1 secs

     total energy              =   -4320.07553216 Ry
     estimated scf accuracy    <       0.00683427 Ry

     iteration # 53     ecut=    25.00 Ry     beta= 0.10
     Davidson diagonalization with overlap
     ethr =  6.13E-07,  avg # of iterations =  1.0

     negative rho (up, down):  1.743E-02 0.000E+00

     total cpu time spent up to now is    91114.3 secs

     total energy              =   -4320.07555997 Ry
     estimated scf accuracy    <       0.00887186 Ry

     iteration # 54     ecut=    25.00 Ry     beta= 0.10
     Davidson diagonalization with overlap
     ethr =  6.13E-07,  avg # of iterations =  1.0

     negative rho (up, down):  1.735E-02 0.000E+00

     total cpu time spent up to now is    92434.2 secs

     total energy              =   -4320.07560517 Ry
     estimated scf accuracy    <       0.00695358 Ry

     iteration # 55     ecut=    25.00 Ry     beta= 0.10
     Davidson diagonalization with overlap
     ethr =  6.13E-07,  avg # of iterations =  1.0

     negative rho (up, down):  1.733E-02 0.000E+00

     total cpu time spent up to now is    93764.1 secs

     total energy              =   -4320.07562929 Ry
     estimated scf accuracy    <       0.00483118 Ry

     iteration # 56     ecut=    25.00 Ry     beta= 0.10
     Davidson diagonalization with overlap
     ethr =  6.13E-07,  avg # of iterations =  1.0

     negative rho (up, down):  1.735E-02 0.000E+00

     total cpu time spent up to now is    95091.9 secs

     total energy              =   -4320.07562974 Ry
     estimated scf accuracy    <       0.00624799 Ry

     iteration # 57     ecut=    25.00 Ry     beta= 0.10
     Davidson diagonalization with overlap
     ethr =  6.13E-07,  avg # of iterations =  1.0

     negative rho (up, down):  1.711E-02 0.000E+00

     total cpu time spent up to now is    96465.8 secs

     total energy              =   -4320.07572107 Ry
     estimated scf accuracy    <       0.00297045 Ry

     iteration # 58     ecut=    25.00 Ry     beta= 0.10
     Davidson diagonalization with overlap
     ethr =  4.82E-07,  avg # of iterations =  1.0

     negative rho (up, down):  1.730E-02 0.000E+00

     total cpu time spent up to now is    97782.9 secs

     total energy              =   -4320.07564806 Ry
     estimated scf accuracy    <       0.00604030 Ry

     iteration # 59     ecut=    25.00 Ry     beta= 0.10
     Davidson diagonalization with overlap
     ethr =  4.82E-07,  avg # of iterations =  1.0

     negative rho (up, down):  1.722E-02 0.000E+00

     total cpu time spent up to now is    99127.3 secs

     total energy              =   -4320.07570629 Ry
     estimated scf accuracy    <       0.00320417 Ry

     iteration # 60     ecut=    25.00 Ry     beta= 0.10
     Davidson diagonalization with overlap
     ethr =  4.82E-07,  avg # of iterations =  1.0

     negative rho (up, down):  1.716E-02 0.000E+00

     total cpu time spent up to now is   100461.7 secs

     total energy              =   -4320.07573495 Ry
     estimated scf accuracy    <       0.00282440 Ry

     iteration # 61     ecut=    25.00 Ry     beta= 0.10
     Davidson diagonalization with overlap
     ethr =  4.59E-07,  avg # of iterations =  1.0

     negative rho (up, down):  1.703E-02 0.000E+00

     total cpu time spent up to now is   101803.1 secs

     total energy              =   -4320.07578397 Ry
     estimated scf accuracy    <       0.00139036 Ry

     iteration # 62     ecut=    25.00 Ry     beta= 0.10
     Davidson diagonalization with overlap
     ethr =  2.26E-07,  avg # of iterations =  1.0

     negative rho (up, down):  1.701E-02 0.000E+00

     total cpu time spent up to now is   103145.9 secs

     total energy              =   -4320.07577634 Ry
     estimated scf accuracy    <       0.00218029 Ry

     iteration # 63     ecut=    25.00 Ry     beta= 0.10
     Davidson diagonalization with overlap
     ethr =  2.26E-07,  avg # of iterations =  1.0

     negative rho (up, down):  1.699E-02 0.000E+00

     total cpu time spent up to now is   104489.3 secs

     total energy              =   -4320.07577848 Ry
     estimated scf accuracy    <       0.00326192 Ry

     iteration # 64     ecut=    25.00 Ry     beta= 0.10
     Davidson diagonalization with overlap
     ethr =  2.26E-07,  avg # of iterations =  1.0

     negative rho (up, down):  1.692E-02 0.000E+00

     total cpu time spent up to now is   105845.9 secs

     total energy              =   -4320.07580762 Ry
     estimated scf accuracy    <       0.00240504 Ry

     iteration # 65     ecut=    25.00 Ry     beta= 0.10
     Davidson diagonalization with overlap
     ethr =  2.26E-07,  avg # of iterations =  1.0

     negative rho (up, down):  1.687E-02 0.000E+00

     total cpu time spent up to now is   107164.9 secs

     total energy              =   -4320.07582862 Ry
     estimated scf accuracy    <       0.00201121 Ry

     iteration # 66     ecut=    25.00 Ry     beta= 0.10
     Davidson diagonalization with overlap
     ethr =  2.26E-07,  avg # of iterations =  1.0

     negative rho (up, down):  1.690E-02 0.000E+00

     total cpu time spent up to now is   108510.1 secs

     total energy              =   -4320.07581014 Ry
     estimated scf accuracy    <       0.00301633 Ry

     iteration # 67     ecut=    25.00 Ry     beta= 0.10
     Davidson diagonalization with overlap
     ethr =  2.26E-07,  avg # of iterations =  1.0

     negative rho (up, down):  1.675E-02 0.000E+00

     total cpu time spent up to now is   109801.4 secs

     total energy              =   -4320.07587531 Ry
     estimated scf accuracy    <       0.00167723 Ry

     iteration # 68     ecut=    25.00 Ry     beta= 0.10
     Davidson diagonalization with overlap
     ethr =  2.26E-07,  avg # of iterations =  1.0

     negative rho (up, down):  1.680E-02 0.000E+00

     total cpu time spent up to now is   111156.0 secs

     total energy              =   -4320.07584648 Ry
     estimated scf accuracy    <       0.00240690 Ry

     iteration # 69     ecut=    25.00 Ry     beta= 0.10
     Davidson diagonalization with overlap
     ethr =  2.26E-07,  avg # of iterations =  1.0

     negative rho (up, down):  1.678E-02 0.000E+00

     total cpu time spent up to now is   112498.1 secs

     total energy              =   -4320.07586241 Ry
     estimated scf accuracy    <       0.00211781 Ry

     iteration # 70     ecut=    25.00 Ry     beta= 0.10
     Davidson diagonalization with overlap
     ethr =  2.26E-07,  avg # of iterations =  1.0

     negative rho (up, down):  1.679E-02 0.000E+00

     total cpu time spent up to now is   113809.0 secs

     total energy              =   -4320.07586247 Ry
     estimated scf accuracy    <       0.00210097 Ry

     iteration # 71     ecut=    25.00 Ry     beta= 0.10
     Davidson diagonalization with overlap
     ethr =  2.26E-07,  avg # of iterations =  1.0

     negative rho (up, down):  1.671E-02 0.000E+00

     total cpu time spent up to now is   115126.2 secs

     total energy              =   -4320.07590550 Ry
     estimated scf accuracy    <       0.00088841 Ry

     iteration # 72     ecut=    25.00 Ry     beta= 0.10
     Davidson diagonalization with overlap
     ethr =  1.44E-07,  avg # of iterations =  1.0

     negative rho (up, down):  1.669E-02 0.000E+00

     total cpu time spent up to now is   116442.8 secs

     total energy              =   -4320.07591100 Ry
     estimated scf accuracy    <       0.00088644 Ry

     iteration # 73     ecut=    25.00 Ry     beta= 0.10
     Davidson diagonalization with overlap
     ethr =  1.44E-07,  avg # of iterations =  1.0

     negative rho (up, down):  1.669E-02 0.000E+00

     total cpu time spent up to now is   117770.7 secs

     total energy              =   -4320.07590969 Ry
     estimated scf accuracy    <       0.00140607 Ry

     iteration # 74     ecut=    25.00 Ry     beta= 0.10
     Davidson diagonalization with overlap
     ethr =  1.44E-07,  avg # of iterations =  1.0

     negative rho (up, down):  1.668E-02 0.000E+00

     total cpu time spent up to now is   119115.9 secs

     total energy              =   -4320.07591953 Ry
     estimated scf accuracy    <       0.00109002 Ry

     iteration # 75     ecut=    25.00 Ry     beta= 0.10
     Davidson diagonalization with overlap
     ethr =  1.44E-07,  avg # of iterations =  1.0

     negative rho (up, down):  1.664E-02 0.000E+00

     total cpu time spent up to now is   120454.9 secs

     total energy              =   -4320.07593935 Ry
     estimated scf accuracy    <       0.00084964 Ry

     iteration # 76     ecut=    25.00 Ry     beta= 0.10
     Davidson diagonalization with overlap
     ethr =  1.38E-07,  avg # of iterations =  1.0

     negative rho (up, down):  1.666E-02 0.000E+00

     total cpu time spent up to now is   121798.0 secs

     total energy              =   -4320.07592777 Ry
     estimated scf accuracy    <       0.00112390 Ry

     iteration # 77     ecut=    25.00 Ry     beta= 0.10
     Davidson diagonalization with overlap
     ethr =  1.38E-07,  avg # of iterations =  1.0

     negative rho (up, down):  1.662E-02 0.000E+00

     total cpu time spent up to now is   123134.0 secs

     total energy              =   -4320.07596157 Ry
     estimated scf accuracy    <       0.00082007 Ry

     iteration # 78     ecut=    25.00 Ry     beta= 0.10
     Davidson diagonalization with overlap
     ethr =  1.33E-07,  avg # of iterations =  1.0

     negative rho (up, down):  1.662E-02 0.000E+00

     total cpu time spent up to now is   124475.8 secs

     total energy              =   -4320.07595352 Ry
     estimated scf accuracy    <       0.00087168 Ry

     iteration # 79     ecut=    25.00 Ry     beta= 0.10
     Davidson diagonalization with overlap
     ethr =  1.33E-07,  avg # of iterations =  1.0

     negative rho (up, down):  1.661E-02 0.000E+00

     total cpu time spent up to now is   125788.1 secs

     total energy              =   -4320.07596058 Ry
     estimated scf accuracy    <       0.00111692 Ry

     iteration # 80     ecut=    25.00 Ry     beta= 0.10
     Davidson diagonalization with overlap
     ethr =  1.33E-07,  avg # of iterations =  1.0

     negative rho (up, down):  1.662E-02 0.000E+00

     total cpu time spent up to now is   127117.5 secs

     total energy              =   -4320.07594967 Ry
     estimated scf accuracy    <       0.00121882 Ry

     iteration # 81     ecut=    25.00 Ry     beta= 0.10
     Davidson diagonalization with overlap
     ethr =  1.33E-07,  avg # of iterations =  1.0

     negative rho (up, down):  1.661E-02 0.000E+00

     total cpu time spent up to now is   128446.9 secs

     total energy              =   -4320.07597414 Ry
     estimated scf accuracy    <       0.00070244 Ry

     iteration # 82     ecut=    25.00 Ry     beta= 0.10
     Davidson diagonalization with overlap
     ethr =  1.14E-07,  avg # of iterations =  1.0

     negative rho (up, down):  1.660E-02 0.000E+00

     total cpu time spent up to now is   129763.9 secs

     total energy              =   -4320.07598257 Ry
     estimated scf accuracy    <       0.00048632 Ry

     iteration # 83     ecut=    25.00 Ry     beta= 0.10
     Davidson diagonalization with overlap
     ethr =  7.89E-08,  avg # of iterations =  1.0

     negative rho (up, down):  1.660E-02 0.000E+00

     total cpu time spent up to now is   131105.1 secs

     total energy              =   -4320.07598069 Ry
     estimated scf accuracy    <       0.00070548 Ry

     iteration # 84     ecut=    25.00 Ry     beta= 0.10
     Davidson diagonalization with overlap
     ethr =  7.89E-08,  avg # of iterations =  1.0

     negative rho (up, down):  1.660E-02 0.000E+00

     total cpu time spent up to now is   132410.3 secs

     total energy              =   -4320.07598536 Ry
     estimated scf accuracy    <       0.00058727 Ry

     iteration # 85     ecut=    25.00 Ry     beta= 0.10
     Davidson diagonalization with overlap
     ethr =  7.89E-08,  avg # of iterations =  1.0

     negative rho (up, down):  1.661E-02 0.000E+00

     total cpu time spent up to now is   133726.4 secs

     total energy              =   -4320.07599507 Ry
     estimated scf accuracy    <       0.00043366 Ry

     iteration # 86     ecut=    25.00 Ry     beta= 0.10
     Davidson diagonalization with overlap
